23
start Energy=-653.89628158
C         -2.35537        0.47584       -0.34932
O         -2.02164        1.32303        0.46095
H         -2.29545        0.67697       -1.44462
P          1.05721       -0.03208       -0.09205
C          2.87734       -0.40945       -0.04505
H          3.01554       -1.45147        0.28253
H          3.28749       -0.31032       -1.06203
H          3.42384        0.26318        0.63664
C          1.01371        1.73328       -0.54967
H          0.00300        2.11376       -0.34232
H          1.76147        2.30410        0.02079
H          1.23274        1.82573       -1.62438
C          0.56214       -0.15798        1.65944
H          1.29900        0.33092        2.31397
H         -0.42216        0.31980        1.76952
H          0.48917       -1.22250        1.92966
C         -0.00878       -0.92431       -1.06865
H          0.09111       -0.76807       -2.14869
H         -0.17653       -1.96235       -0.76043
C         -3.06014       -0.80322        0.03007
H         -4.14854       -0.60376        0.03333
H         -2.85434       -1.60336       -0.69300
H         -2.77078       -1.11776        1.04331
23
int_1 Energy=-653.894803397
C         -2.33173        0.36441       -0.36635
O         -2.01731        1.25946        0.40785
H         -2.33271        0.53544       -1.46702
P          1.03141        0.01818       -0.10780
C          2.82336       -0.44979       -0.11934
H          2.90593       -1.51028        0.16292
H          3.20483       -0.33222       -1.14553
H          3.42538        0.16787        0.56869
C          1.07484        1.78710       -0.55281
H          0.05423        2.18879       -0.47730
H          1.74101        2.32193        0.14359
H          1.47080        1.90293       -1.57260
C          0.56296       -0.05020        1.65088
H          1.23662        0.58124        2.25111
H         -0.46960        0.32012        1.73119
H          0.62824       -1.09106        1.99961
C         -0.08170       -0.86568       -1.04563
H          0.00976       -0.75068       -2.13061
H         -0.22371       -1.90039       -0.71275
C         -3.02811       -0.89886        0.09745
H         -4.08306       -0.63547        0.29809
H         -3.00426       -1.69813       -0.65561
H         -2.59716       -1.26473        1.04197
23
int_2 Energy=-653.88933889
C         -2.22798        0.24140       -0.40064
O         -1.95747        1.18449        0.35113
H         -2.33011        0.40275       -1.49827
P          0.98443        0.07870       -0.10570
C          2.73350       -0.49044       -0.18938
H          2.76073       -1.56051        0.06312
H          3.09239       -0.36125       -1.22225
H          3.37772        0.08012        0.49966
C          1.12477        1.84271       -0.55258
H          0.12104        2.27968       -0.64266
H          1.67501        2.35216        0.25555
H          1.70805        1.94700       -1.47945
C          0.55235        0.03876        1.66123
H          1.14598        0.78718        2.20917
H         -0.51641        0.29299        1.72751
H          0.75996       -0.96488        2.05860
C         -0.18394       -0.80135       -1.00018
H         -0.10135       -0.71402       -2.08913
H         -0.23374       -1.84767       -0.66439
C         -2.96335       -0.98236        0.13642
H         -3.93518       -0.61272        0.50615
H         -3.14401       -1.75836       -0.62012
H         -2.44238       -1.43437        0.99621
23
int_3 Energy=-653.888771105
C         -1.89778        0.05415       -0.48597
O         -1.70422        1.07535        0.30000
H         -2.27622        0.29870       -1.52806
P          0.89532        0.17037       -0.04522
C          2.59074       -0.52380       -0.25091
H          2.62497       -1.59194        0.00869
H          2.96741       -0.38150       -1.27612
H          3.24887        0.03533        0.43928
C          1.12866        1.89379       -0.54522
H          0.13376        2.33117       -0.70343
H          1.63024        2.39182        0.29867
H          1.78559        1.94590       -1.42729
C          0.53896        0.07773        1.71606
H          1.10261        0.86937        2.22908
H         -0.54908        0.29576        1.74597
H          0.82030       -0.91764        2.09032
C         -0.40448       -0.71288       -0.92126
H         -0.21049       -0.66000       -2.00567
H         -0.28413       -1.77149       -0.61833
C         -2.84961       -1.03105        0.11167
H         -3.74043       -0.51194        0.50047
H         -3.17283       -1.80125       -0.60655
H         -2.37815       -1.53593        0.97386
23
int_4 Energy=-653.912146542
C         -1.74834       -0.10964       -0.63314
O         -1.20859        0.94712        0.10336
H         -2.27115        0.22791       -1.56186
P          0.57722        0.30795        0.00467
C          2.33100       -0.47085       -0.26141
H          2.38183       -1.54768       -0.02302
H          2.71807       -0.33899       -1.28975
H          3.03511        0.05281        0.40758
C          1.12402        1.97056       -0.54052
H          0.23545        2.53472       -0.83550
H          1.57965        2.42788        0.35087
H          1.88501        1.91831       -1.33405
C          0.53310        0.06993        1.81816
H          1.07095        0.92343        2.25768
H         -0.52678        0.12876        2.08443
H          1.00661       -0.87323        2.13065
C         -0.44552       -0.83587       -1.01223
H         -0.16622       -0.76543       -2.06585
H         -0.29751       -1.86342       -0.66549
C         -2.75508       -1.00326        0.12703
H         -3.56755       -0.38752        0.54325
H         -3.19759       -1.74912       -0.56549
H         -2.29369       -1.56436        0.96063
23
int_5 Energy=-653.902754891
C         -1.74560       -0.24396       -0.67752
O         -1.11247        0.94131       -0.15267
H         -2.34119        0.10926       -1.53030
P          0.56207        0.33346       -0.06507
C          2.20157       -0.47008       -0.36546
H          2.13000       -1.54303       -0.18096
H          2.52845       -0.29242       -1.39584
H          2.92822       -0.01452        0.31082
C          1.27144        2.06191       -0.44575
H          0.70306        2.60261       -1.21558
H          1.25127        2.67548        0.47147
H          2.32358        1.97981       -0.75152
C          0.51627        0.17269        1.78807
H          0.68927        1.18185        2.20508
H         -0.49074       -0.14543        2.09880
H          1.28624       -0.51434        2.17020
C         -0.47525       -1.01666       -1.06029
H         -0.21591       -0.96176       -2.13837
H         -0.39573       -2.07900       -0.73175
C         -2.70457       -1.03289        0.25039
H         -3.27392       -0.38719        0.93652
H         -3.44226       -1.56305       -0.37538
H         -2.19377       -1.79405        0.85509
23
int_6 Energy=-653.885831344
C         -1.94057       -0.79172       -0.85222
O         -0.66055        1.26567       -0.36655
H         -2.25990        0.08708       -1.40402
P          0.67613        0.76377        0.06986
C          2.04052       -0.41269       -0.47541
H          1.97279       -1.48939       -0.29234
H          2.44620       -0.23642       -1.47938
H          2.83662       -0.05447        0.19885
C          1.55485        2.30165       -0.32350
H          1.06359        2.56313       -1.27052
H          1.20361        2.95722        0.46690
H          2.61895        2.11144       -0.37013
C          0.54424        0.30345        1.82379
H          0.50763        1.28801        2.29799
H         -0.42691       -0.20006        1.97959
H          1.37138       -0.30045        2.21068
C         -0.91734       -1.47098       -1.30663
H         -0.25144       -1.14872       -2.11952
H         -0.60174       -2.37216       -0.75625
C         -2.76980       -1.20112        0.31106
H         -3.08029       -0.41943        1.04263
H         -3.66387       -1.51888       -0.24554
H         -2.26410       -2.02493        0.86066
23
int_7 Energy=-653.922121277
C         -2.07584       -0.92499       -0.85429
O         -0.50421        1.15514       -0.62778
H         -2.35787        0.02626       -1.32559
P          0.83846        0.88311        0.06311
C          2.09131       -0.35942       -0.46045
H          1.85970       -1.42384       -0.29169
H          2.45372       -0.21659       -1.48961
H          2.92198       -0.09028        0.21404
C          1.73297        2.43050       -0.25619
H          1.25249        2.74415       -1.20040
H          1.47509        3.15269        0.52681
H          2.81227        2.28437       -0.38548
C          0.57976        0.40949        1.82051
H          0.54964        1.32666        2.42202
H         -0.40050       -0.09765        1.88224
H          1.36730       -0.27109        2.18776
C         -1.02287       -1.57145       -1.29809
H         -0.36537       -1.15907       -2.07849
H         -0.68859       -2.51737       -0.84367
C         -2.94514       -1.35159        0.28842
H         -3.20239       -0.55875        1.01514
H         -3.89620       -1.68834       -0.14812
H         -2.47571       -2.18195        0.83979
23
int_8 Energy=-653.930185733
C         -2.16255       -0.95920       -0.80216
O         -0.32859        1.07492       -0.79755
H         -2.38778        0.03578       -1.20722
P          0.92533        0.91876        0.01772
C          2.20033       -0.33040       -0.42536
H          1.88656       -1.37195       -0.25260
H          2.54030       -0.20658       -1.46306
H          3.04264       -0.10506        0.24848
C          1.81429        2.50133       -0.24259
H          1.24689        2.85675       -1.11990
H          1.66526        3.20939        0.58265
H          2.87514        2.37915       -0.50611
C          0.58821        0.44252        1.77835
H          0.60455        1.30713        2.45592
H         -0.42233       -0.00039        1.77258
H          1.30508       -0.31744        2.13094
C         -1.07515       -1.57692       -1.24359
H         -0.41543       -1.08810       -1.96818
H         -0.74125       -2.54813       -0.85682
C         -3.09458       -1.45831        0.26271
H         -3.39671       -0.64950        0.95378
H         -4.03194       -1.84656       -0.17889
H         -2.63825       -2.26716        0.86090
23
int_9 Energy=-653.938172235
C         -2.16584       -0.97896       -0.69030
O         -0.24462        1.09065       -0.95149
H         -2.32968        0.05681       -1.00453
P          0.97038        0.95343       -0.04308
C          2.22315       -0.31520       -0.45777
H          1.84187       -1.33701       -0.31128
H          2.56471       -0.18922       -1.49386
H          3.07415       -0.15439        0.22451
C          1.87154        2.53362       -0.22312
H          1.47391        2.85802       -1.19960
H          1.56203        3.27039        0.53223
H          2.96559        2.42989       -0.27525
C          0.55667        0.50269        1.70063
H          0.43532        1.38304        2.34859
H         -0.39620       -0.04768        1.64948
H          1.32218       -0.16539        2.13068
C         -1.11047       -1.61635       -1.20176
H         -0.44633       -1.09578       -1.89403
H         -0.84595       -2.64093       -0.92308
C         -3.12791       -1.53019        0.31835
H         -3.36169       -0.78298        1.10000
H         -4.09665       -1.78933       -0.15018
H         -2.73613       -2.43513        0.81488
23
int_10 Energy=-653.946397181
C         -2.15160       -1.00760       -0.58780
O         -0.19079        1.12362       -1.06286
H         -2.25581        0.05747       -0.81529
P          0.98166        0.98930       -0.10869
C          2.21385       -0.30575       -0.50474
H          1.77722       -1.30894       -0.38933
H          2.56119       -0.17426       -1.53827
H          3.06843       -0.20415        0.18340
C          1.92050        2.55039       -0.20081
H          1.76313        2.83821       -1.25341
H          1.45001        3.32084        0.42830
H          2.99541        2.45853        0.01146
C          0.52185        0.56994        1.62553
H          0.23052        1.45987        2.20197
H         -0.33744       -0.11573        1.56081
H          1.34672        0.05154        2.14111
C         -1.14664       -1.66184       -1.18446
H         -0.47823       -1.12163       -1.85586
H         -0.95003       -2.72269       -1.00624
C         -3.12518       -1.59074        0.39065
H         -3.24487       -0.93460        1.27336
H         -4.13464       -1.68295       -0.05267
H         -2.81527       -2.58881        0.74383
23
int_11 Energy=-653.951959744
C         -2.13020       -1.04004       -0.49986
O         -0.16520        1.15744       -1.13910
H         -2.18306        0.04267       -0.65170
P          0.97860        1.02047       -0.16904
C          2.19352       -0.29839       -0.55180
H          1.71833       -1.28663       -0.46162
H          2.55032       -0.16332       -1.58270
H          3.04719       -0.24124        0.14133
C          1.95777        2.55849       -0.18671
H          2.02007        2.81543       -1.25651
H          1.39101        3.35737        0.31504
H          2.96659        2.46486        0.23997
C          0.49326        0.63591        1.56118
H          0.05334        1.51545        2.05348
H         -0.26512       -0.16106        1.51182
H          1.35359        0.27583        2.14662
C         -1.18291       -1.70120       -1.18110
H         -0.51738       -1.14744       -1.84443
H         -1.04521       -2.78236       -1.08903
C         -3.10480       -1.64424        0.46472
H         -3.10679       -1.09416        1.42453
H         -4.13949       -1.58017        0.07977
H         -2.88344       -2.70367        0.67514
23
int_12 Energy=-653.955378152
C         -2.10745       -1.08745       -0.41693
O         -0.15546        1.19979       -1.20198
H         -2.11104        0.00510       -0.49760
P          0.97688        1.06032       -0.22559
C          2.16187       -0.28567       -0.60268
H          1.64293       -1.25360       -0.53643
H          2.53010       -0.14960       -1.63036
H          3.01255       -0.27626        0.09608
C          2.00130        2.57083       -0.17953
H          2.26184        2.79859       -1.22482
H          1.39101        3.40133        0.20640
H          2.91690        2.46005        0.41943
C          0.47035        0.71469        1.50161
H         -0.09648        1.56730        1.90425
H         -0.18577       -0.16891        1.48526
H          1.34118        0.51218        2.14382
C         -1.23131       -1.74722       -1.18734
H         -0.57427       -1.18469       -1.85310
H         -1.15314       -2.83912       -1.17491
C         -3.07280       -1.70972        0.54679
H         -2.95538       -1.28220        1.55989
H         -4.11734       -1.50347        0.25022
H         -2.94647       -2.80226        0.61751
23
end Energy=-653.956601951
C         -2.09147       -1.15917       -0.33591
O         -0.14499        1.27115       -1.25699
H         -2.04557       -0.06330       -0.34920
P          0.98825        1.11848       -0.27751
C          2.12276       -0.26425       -0.65969
H          1.55070       -1.20293       -0.61736
H          2.50445       -0.13227       -1.68335
H          2.96636       -0.31222        0.04602
C          2.06423        2.59475       -0.17641
H          2.48523        2.79300       -1.17372
H          1.44844        3.45871        0.11613
H          2.88146        2.46192        0.54920
C          0.45322        0.81075        1.44453
H         -0.21069        1.63005        1.75928
H         -0.11597       -0.13022        1.46479
H          1.30901        0.74339        2.13371
C         -1.29825       -1.80713       -1.19601
H         -0.65476       -1.23651       -1.87029
H         -1.28110       -2.90160       -1.25898
C         -3.03826       -1.79893        0.63653
H         -2.81182       -1.49450        1.67442
H         -4.07814       -1.48014        0.44385
H         -3.00311       -2.89904        0.58694
