23
start Energy=-653.89628158
C         -2.35537        0.47584       -0.34932
O         -2.02164        1.32303        0.46095
H         -2.29545        0.67697       -1.44462
P          1.05721       -0.03208       -0.09205
C          2.87734       -0.40945       -0.04505
H          3.01554       -1.45147        0.28253
H          3.28749       -0.31032       -1.06203
H          3.42384        0.26318        0.63664
C          1.01371        1.73328       -0.54967
H          0.00300        2.11376       -0.34232
H          1.76147        2.30410        0.02079
H          1.23274        1.82573       -1.62438
C          0.56214       -0.15798        1.65944
H          1.29900        0.33092        2.31397
H         -0.42216        0.31980        1.76952
H          0.48917       -1.22250        1.92966
C         -0.00878       -0.92431       -1.06865
H          0.09111       -0.76807       -2.14869
H         -0.17653       -1.96235       -0.76043
C         -3.06014       -0.80322        0.03007
H         -4.14854       -0.60376        0.03333
H         -2.85434       -1.60336       -0.69300
H         -2.77078       -1.11776        1.04331
23
int_1 Energy=-653.894422167
C         -2.27537        0.35825       -0.38090
O         -1.97380        1.25965        0.38568
H         -2.31099        0.53467       -1.48207
P          1.01279        0.02375       -0.09344
C          2.79628       -0.45913       -0.12549
H          2.87437       -1.51988        0.15823
H          3.17375       -0.34467       -1.15366
H          3.40000        0.15762        0.55882
C          1.05834        1.79073       -0.55076
H          0.03381        2.18531       -0.50579
H          1.70107        2.34948        0.14688
H          1.47670        1.88877       -1.56271
C          0.56287       -0.04674        1.66984
H          1.23229        0.58915        2.26656
H         -0.47238        0.31579        1.75484
H          0.64027       -1.08691        2.01814
C         -0.11706       -0.86008       -1.02656
H         -0.02221       -0.73437       -2.11119
H         -0.24063       -1.90520       -0.71471
C         -2.98470       -0.90066        0.08794
H         -4.02906       -0.61406        0.31169
H         -2.99188       -1.69636       -0.67078
H         -2.54447       -1.28511        1.01945
23
int_2 Energy=-653.887870803
C         -2.04581        0.18955       -0.45825
O         -1.77651        1.17764        0.29105
H         -2.27884        0.39529       -1.53415
P          0.92069        0.10485       -0.06000
C          2.64553       -0.50238       -0.20301
H          2.68231       -1.57213        0.05559
H          2.99775       -0.36867       -1.23868
H          3.29760        0.07214        0.47673
C          1.07787        1.85309       -0.54759
H          0.07535        2.28104       -0.66841
H          1.61357        2.40063        0.24266
H          1.67978        1.91745       -1.46584
C          0.54836        0.03469        1.71374
H          1.15094        0.78433        2.24520
H         -0.51916        0.28153        1.81154
H          0.78573       -0.96842        2.09653
C         -0.28857       -0.79202       -0.96511
H         -0.14149       -0.70598       -2.05054
H         -0.29950       -1.85760       -0.68024
C         -2.86329       -0.97146        0.11302
H         -3.81967       -0.55617        0.48121
H         -3.08059       -1.75621       -0.63137
H         -2.36202       -1.44118        0.97592
23
int_3 Energy=-653.90652072
C         -1.78589       -0.03663       -0.60793
O         -1.30641        1.01350        0.14669
H         -2.27792        0.29232       -1.56192
P          0.68015        0.25786        0.01082
C          2.41158       -0.49165       -0.24509
H          2.47095       -1.56452       -0.00155
H          2.78056       -0.35315       -1.27550
H          3.11886        0.04253        0.41332
C          1.09959        1.94356       -0.54635
H          0.15218        2.41121       -0.81629
H          1.54374        2.47372        0.30778
H          1.83126        1.91340       -1.36115
C          0.54364        0.05092        1.81309
H          1.08884        0.88249        2.28031
H         -0.52575        0.16716        2.00697
H          0.95084       -0.91101        2.15079
C         -0.43258       -0.80471       -0.99319
H         -0.15278       -0.74406       -2.06180
H         -0.37693       -1.86669       -0.68162
C         -2.77022       -0.98468        0.11781
H         -3.63150       -0.43252        0.53695
H         -3.14545       -1.75150       -0.58478
H         -2.26676       -1.50755        0.95264
23
int_4 Energy=-653.913873853
C         -1.74254       -0.14625       -0.68931
O         -1.18259        0.93427        0.01031
H         -2.28410        0.21206       -1.58910
P          0.55187        0.30280       -0.00589
C          2.24570       -0.47910       -0.27955
H          2.23119       -1.55711       -0.06928
H          2.54818       -0.32660       -1.32600
H          2.98972        0.01299        0.36482
C          1.14162        1.98568       -0.51593
H          0.34456        2.52692       -1.03306
H          1.39370        2.53892        0.40318
H          2.04896        1.91432       -1.13092
C          0.52825        0.08926        1.82907
H          0.93134        1.02237        2.25362
H         -0.50011       -0.01514        2.18710
H          1.15440       -0.75102        2.15960
C         -0.43355       -0.89460       -1.05865
H         -0.10043       -0.85292       -2.10895
H         -0.33211       -1.94093       -0.71993
C         -2.70246       -0.98070        0.16682
H         -3.41878       -0.35001        0.72273
H         -3.26844       -1.67000       -0.48281
H         -2.14436       -1.57520        0.91212
23
int_5 Energy=-653.905489705
C         -1.75920       -0.24600       -0.73518
O         -1.17341        0.92724       -0.16019
H         -2.33742        0.02363       -1.64367
P          0.54307        0.34290       -0.04497
C          2.19892       -0.47838       -0.35667
H          2.10703       -1.55789       -0.17605
H          2.46604       -0.30220       -1.40972
H          2.97087       -0.03418        0.28843
C          1.25627        2.07554       -0.42008
H          0.66156        2.59744       -1.17266
H          1.28136        2.69812        0.48690
H          2.29614        1.99462       -0.75847
C          0.52290        0.16209        1.80767
H          0.74120        1.14577        2.25142
H         -0.47243       -0.13620        2.15217
H          1.28546       -0.54589        2.15593
C         -0.46033       -0.99326       -1.06855
H         -0.15485       -1.00760       -2.13159
H         -0.38664       -2.03932       -0.71863
C         -2.70711       -1.00821        0.22449
H         -3.24798       -0.31565        0.88873
H         -3.47141       -1.58445       -0.32606
H         -2.16004       -1.71811        0.86674
23
int_6 Energy=-653.880483937
C         -1.78186       -0.37067       -0.78763
O         -1.12382        0.92065       -0.34062
H         -2.38341       -0.08402       -1.66488
P          0.52732        0.41802       -0.05506
C          2.12584       -0.45610       -0.43584
H          1.94763       -1.52928       -0.28204
H          2.36151       -0.25755       -1.49259
H          2.92520       -0.07060        0.21444
C          1.37186        2.15037       -0.31098
H          1.03949        2.61174       -1.24779
H          1.21677        2.89164        0.49269
H          2.47230        2.04993       -0.38440
C          0.52906        0.25134        1.79848
H          0.56172        1.23566        2.29827
H         -0.39142       -0.24713        2.11697
H          1.39876       -0.32745        2.14378
C         -0.53066       -1.15608       -1.10428
H         -0.20898       -1.13867       -2.16256
H         -0.45837       -2.19378       -0.72170
C         -2.71406       -1.04349        0.26237
H         -3.06391       -0.30488        0.99143
H         -3.63222       -1.51240       -0.14857
H         -2.18876       -1.83723        0.82051
23
int_7 Energy=-653.912969177
C         -2.01229       -0.87378       -0.99990
O         -0.70606        1.13577       -0.35130
H         -2.37547       -0.04183       -1.60842
P          0.68395        0.79826        0.12440
C          2.00621       -0.40752       -0.44136
H          1.85709       -1.47978       -0.25327
H          2.33742       -0.25136       -1.47840
H          2.83825       -0.07529        0.20559
C          1.59086        2.32541       -0.26075
H          1.00722        2.69069       -1.12034
H          1.48750        3.03471        0.56620
H          2.63260        2.15674       -0.54481
C          0.60286        0.32768        1.89238
H          0.68871        1.24320        2.49021
H         -0.39076       -0.11683        2.06119
H          1.37923       -0.39497        2.16828
C         -0.89234       -1.50333       -1.35213
H         -0.26799       -1.14880       -2.18192
H         -0.45126       -2.27751       -0.71765
C         -2.83108       -1.21031        0.21576
H         -3.12487       -0.33835        0.82998
H         -3.77066       -1.68065       -0.11401
H         -2.28913       -1.91215        0.87027
23
int_8 Energy=-653.928630445
C         -2.15941       -0.98056       -0.91657
O         -0.42634        1.08896       -0.67117
H         -2.44148       -0.06288       -1.44100
P          0.86621        0.91162        0.07123
C          2.14490       -0.33554       -0.41540
H          1.83445       -1.37547       -0.23526
H          2.44746       -0.21714       -1.46591
H          3.02029       -0.11937        0.22228
C          1.76576        2.47671       -0.20853
H          1.15845        2.90994       -1.01825
H          1.75494        3.16762        0.63983
H          2.78442        2.30521       -0.57461
C          0.61327        0.42752        1.83146
H          0.72447        1.27081        2.52332
H         -0.40963        0.02646        1.91573
H          1.32389       -0.36424        2.10455
C         -1.03147       -1.58762       -1.29110
H         -0.38644       -1.15358       -2.05752
H         -0.65997       -2.48930       -0.79422
C         -3.04131       -1.39465        0.21555
H         -3.36645       -0.53597        0.82718
H         -3.97229       -1.85615       -0.14986
H         -2.54372       -2.11241        0.88827
23
int_9 Energy=-653.938072684
C         -2.19401       -1.01381       -0.76922
O         -0.23516        1.08947       -0.91430
H         -2.39126       -0.01087       -1.16401
P          0.96401        0.97619       -0.01509
C          2.21914       -0.30207       -0.43675
H          1.80216       -1.30971       -0.28404
H          2.52501       -0.19315       -1.48821
H          3.10330       -0.18166        0.21154
C          1.86709        2.55554       -0.18863
H          1.40937        2.95016       -1.10819
H          1.68399        3.27618        0.61465
H          2.94009        2.41055       -0.35304
C          0.58318        0.50778        1.72777
H          0.55347        1.35290        2.42637
H         -0.40104        0.01367        1.71807
H          1.32436       -0.22065        2.08401
C         -1.10953       -1.64947       -1.21715
H         -0.43330       -1.15351       -1.91727
H         -0.82963       -2.65090       -0.86890
C         -3.14489       -1.51771        0.27366
H         -3.42490       -0.71751        0.97840
H         -4.09450       -1.86378       -0.16812
H         -2.71695       -2.34766        0.85845
23
int_10 Energy=-653.945706193
C         -2.17867       -1.02959       -0.64264
O         -0.16074        1.11998       -1.04671
H         -2.30575        0.02218       -0.92548
P          0.98703        1.00723       -0.09606
C          2.22473       -0.29672       -0.48535
H          1.75306       -1.28386       -0.36283
H          2.54393       -0.17998       -1.53156
H          3.10293       -0.23292        0.17706
C          1.92442        2.57635       -0.17315
H          1.71500        2.91070       -1.20103
H          1.52194        3.33797        0.50760
H          3.00470        2.45637       -0.03496
C          0.54143        0.56972        1.63929
H          0.31286        1.44014        2.26921
H         -0.35089       -0.07361        1.58038
H          1.35230       -0.00889        2.10230
C         -1.14761       -1.68735       -1.18379
H         -0.46180       -1.16355       -1.85303
H         -0.94160       -2.74033       -0.95910
C         -3.15483       -1.58339        0.35201
H         -3.32260       -0.87283        1.17958
H         -4.14882       -1.75152       -0.09828
H         -2.81100       -2.53609        0.78652
23
int_11 Energy=-653.951441154
C         -2.15056       -1.04813       -0.53479
O         -0.14216        1.15700       -1.13577
H         -2.21601        0.02951       -0.72090
P          0.99100        1.02977       -0.15764
C          2.20416       -0.29536       -0.53801
H          1.70605       -1.27209       -0.44043
H          2.54230       -0.17074       -1.57739
H          3.07375       -0.26358        0.13788
C          1.96074        2.57668       -0.16677
H          1.98531        2.86096       -1.23005
H          1.42194        3.36938        0.37286
H          2.98328        2.47064        0.21767
C          0.50498        0.63035        1.56787
H          0.09804        1.50301        2.09910
H         -0.27448       -0.14503        1.50955
H          1.36316        0.22817        2.12567
C         -1.17914       -1.71714       -1.17733
H         -0.49950       -1.17395       -1.83539
H         -1.03681       -2.79570       -1.05562
C         -3.12959       -1.63549        0.43589
H         -3.16693       -1.04067        1.36621
H         -4.15810       -1.62239        0.03275
H         -2.88142       -2.67520        0.70463
23
int_12 Energy=-653.955118273
C         -2.11840       -1.09066       -0.43435
O         -0.14579        1.20246       -1.20617
H         -2.13028        0.00219       -0.53159
P          0.99025        1.06338       -0.21474
C          2.16798       -0.28587       -0.59500
H          1.63850       -1.24797       -0.52372
H          2.52750       -0.15560       -1.62658
H          3.02719       -0.28913        0.09606
C          2.00200        2.57963       -0.17001
H          2.23655        2.82234       -1.21722
H          1.40128        3.40570        0.23956
H          2.93283        2.46608        0.40511
C          0.47574        0.70979        1.50439
H         -0.07498        1.56253        1.92857
H         -0.19250       -0.16375        1.47980
H          1.34856        0.48267        2.13676
C         -1.22829       -1.75208       -1.18455
H         -0.56321       -1.19683       -1.84674
H         -1.14370       -2.84492       -1.15767
C         -3.08685       -1.70373        0.53128
H         -2.99117       -1.24796        1.53308
H         -4.13122       -1.52648        0.21865
H         -2.94199       -2.79179        0.63509
23
end Energy=-653.956601951
C         -2.09147       -1.15917       -0.33591
O         -0.14499        1.27115       -1.25699
H         -2.04557       -0.06330       -0.34920
P          0.98825        1.11848       -0.27751
C          2.12276       -0.26425       -0.65969
H          1.55070       -1.20293       -0.61736
H          2.50445       -0.13227       -1.68335
H          2.96636       -0.31222        0.04602
C          2.06423        2.59475       -0.17641
H          2.48523        2.79300       -1.17372
H          1.44844        3.45871        0.11613
H          2.88146        2.46192        0.54920
C          0.45322        0.81075        1.44453
H         -0.21069        1.63005        1.75928
H         -0.11597       -0.13022        1.46479
H          1.30901        0.74339        2.13371
C         -1.29825       -1.80713       -1.19601
H         -0.65476       -1.23651       -1.87029
H         -1.28110       -2.90160       -1.25898
C         -3.03826       -1.79893        0.63653
H         -2.81182       -1.49450        1.67442
H         -4.07814       -1.48014        0.44385
H         -3.00311       -2.89904        0.58694
