23
start Energy=-653.89628158
C         -2.35537        0.47584       -0.34932
O         -2.02164        1.32303        0.46095
H         -2.29545        0.67697       -1.44462
P          1.05721       -0.03208       -0.09205
C          2.87734       -0.40945       -0.04505
H          3.01554       -1.45147        0.28253
H          3.28749       -0.31032       -1.06203
H          3.42384        0.26318        0.63664
C          1.01371        1.73328       -0.54967
H          0.00300        2.11376       -0.34232
H          1.76147        2.30410        0.02079
H          1.23274        1.82573       -1.62438
C          0.56214       -0.15798        1.65944
H          1.29900        0.33092        2.31397
H         -0.42216        0.31980        1.76952
H          0.48917       -1.22250        1.92966
C         -0.00878       -0.92431       -1.06865
H          0.09111       -0.76807       -2.14869
H         -0.17653       -1.96235       -0.76043
C         -3.06014       -0.80322        0.03007
H         -4.14854       -0.60376        0.03333
H         -2.85434       -1.60336       -0.69300
H         -2.77078       -1.11776        1.04331
23
int_1 Energy=-653.894666319
C         -2.36036        0.37694       -0.36152
O         -2.05547        1.29721        0.38421
H         -2.39059        0.51231       -1.46677
P          1.03490        0.01200       -0.10865
C          2.82887       -0.47352       -0.13812
H          2.90623       -1.53745        0.13516
H          3.19983       -0.36288       -1.16972
H          3.45518        0.12150        0.54754
C          1.04324        1.77718       -0.57580
H          0.00746        2.14340       -0.52379
H          1.67264        2.33551        0.13410
H          1.43480        1.90875       -1.59610
C          0.57911       -0.02161        1.66288
H          1.25565        0.62826        2.24068
H         -0.45188        0.35571        1.74012
H          0.64165       -1.04429        2.06586
C         -0.08308       -0.85932       -1.04495
H         -0.01197       -0.71707       -2.12898
H         -0.28004       -1.88141       -0.70749
C         -2.97778       -0.91189        0.12931
H         -4.02484       -0.70380        0.42152
H         -2.97660       -1.67651       -0.66048
H         -2.44695       -1.27901        1.02099
23
int_2 Energy=-653.88788789
C         -2.12139        0.24821       -0.41178
O         -1.85686        1.22293        0.30199
H         -2.35296        0.35820       -1.50699
P          0.94844        0.09096       -0.06645
C          2.66673       -0.55109       -0.22099
H          2.66995       -1.62604        0.01606
H          2.96926       -0.44521       -1.27484
H          3.38934       -0.03905        0.43311
C          1.04328        1.84040       -0.58773
H          0.01995        2.21822       -0.72906
H          1.52753        2.41465        0.21629
H          1.62328        1.94514       -1.51876
C          0.55376        0.09331        1.72328
H          1.16272        0.84935        2.24204
H         -0.50911        0.37026        1.80452
H          0.74389       -0.88651        2.18941
C         -0.24026       -0.76817       -0.97321
H         -0.14879       -0.63452       -2.05712
H         -0.34039       -1.81175       -0.65541
C         -2.80116       -1.00078        0.15585
H         -3.74360       -0.68896        0.63792
H         -3.03618       -1.72453       -0.64565
H         -2.16743       -1.47501        0.92753
23
int_3 Energy=-653.904002464
C         -1.74292       -0.00852       -0.61280
O         -1.27647        1.00960        0.19348
H         -2.28792        0.36091       -1.53687
P          0.70016        0.27189        0.06522
C          2.40841       -0.53460       -0.24130
H          2.43564       -1.60967       -0.00154
H          2.70499       -0.44901       -1.30036
H          3.21353       -0.07412        0.35653
C          1.02057        1.95464       -0.58423
H          0.01100        2.36868       -0.69041
H          1.57803        2.52563        0.17276
H          1.55520        1.95137       -1.54762
C          0.55276        0.08499        1.89322
H          1.24245        0.77294        2.40767
H         -0.48632        0.36994        2.08904
H          0.74371       -0.93961        2.25086
C         -0.40836       -0.75782       -0.98009
H         -0.09399       -0.73263       -2.03659
H         -0.35055       -1.82534       -0.70035
C         -2.70437       -0.99378        0.08195
H         -3.64947       -0.51825        0.40697
H         -2.95214       -1.78025       -0.65589
H         -2.21392       -1.44701        0.97033
23
int_4 Energy=-653.90599627
C         -1.72445       -0.16129       -0.81100
O         -1.23089        0.90565        0.01124
H         -2.19977        0.21753       -1.75021
P          0.48920        0.33092        0.07767
C          2.18799       -0.46829       -0.19983
H          2.09365       -1.53932        0.05778
H          2.34758       -0.37121       -1.28861
H          3.00621        0.00483        0.38563
C          1.05048        2.01542       -0.51922
H          0.20691        2.61131       -0.88474
H          1.55085        2.57542        0.28557
H          1.77989        1.90419       -1.33303
C          0.57064        0.04975        1.92935
H          1.14520        0.87412        2.37833
H         -0.38694       -0.02859        2.46214
H          1.15388       -0.86185        2.13511
C         -0.40707       -0.87112       -1.07126
H          0.00847       -0.82738       -2.08479
H         -0.37019       -1.93680       -0.79763
C         -2.65963       -0.98284        0.06448
H         -3.36089       -0.24712        0.47049
H         -3.20225       -1.81825       -0.41654
H         -2.04886       -1.37511        0.89908
23
int_5 Energy=-653.908786426
C         -1.74578       -0.13584       -0.76596
O         -1.20842        0.99240       -0.09154
H         -2.30470        0.12526       -1.70532
P          0.54717        0.31421        0.00227
C          2.19481       -0.55817       -0.32118
H          2.10215       -1.63127       -0.10872
H          2.40763       -0.47321       -1.39588
H          3.05422       -0.17717        0.24696
C          1.12853        2.01933       -0.46694
H          0.50370        2.34136       -1.31144
H          0.91856        2.71805        0.36696
H          2.19639        2.05597       -0.73815
C          0.53177        0.10916        1.84427
H          0.60536        1.10666        2.31141
H         -0.39780       -0.36587        2.19097
H          1.40107       -0.48332        2.17165
C         -0.44107       -0.87258       -1.06853
H         -0.05517       -0.81968       -2.09989
H         -0.39279       -1.94161       -0.78705
C         -2.61339       -0.94670        0.21660
H         -3.08440       -0.16198        0.81439
H         -3.37358       -1.64819       -0.18009
H         -1.97428       -1.56681        0.87521
23
int_6 Energy=-653.873618652
C         -1.78536       -0.39669       -0.85024
O         -1.22861        0.90512       -0.44988
H         -2.37785       -0.31532       -1.79406
P          0.45933        0.44492       -0.07427
C          2.05150       -0.45603       -0.54805
H          1.80606       -1.52381       -0.44213
H          2.19362       -0.29150       -1.62938
H          2.99516       -0.24961       -0.01728
C          1.34346        2.17448       -0.21580
H          1.50890        2.55263       -1.24159
H          0.93774        3.03734        0.34109
H          2.37272        1.98715        0.16033
C          0.51262        0.26165        1.80250
H          0.37321        1.21878        2.33680
H         -0.23692       -0.43388        2.20763
H          1.50659       -0.12147        2.08575
C         -0.50347       -1.15790       -1.04244
H         -0.24147       -1.24706       -2.11478
H         -0.42332       -2.19183       -0.63837
C         -2.66307       -0.96033        0.29394
H         -2.73939       -0.09309        0.96483
H         -3.67593       -1.33674        0.04063
H         -2.18550       -1.80682        0.82477
23
int_7 Energy=-653.926187117
C         -2.00471       -1.01589       -1.29267
O         -0.88717        1.02081        0.04008
H         -2.50160       -0.43072       -2.07603
P          0.56438        0.84213        0.36243
C          1.70388       -0.40269       -0.42263
H          1.46020       -1.45027       -0.23067
H          1.82875       -0.27258       -1.50750
H          2.66919       -0.18943        0.07235
C          1.50184        2.32909       -0.13351
H          0.93516        2.77916       -0.95927
H          1.64720        3.08206        0.64329
H          2.48194        2.04557       -0.52032
C          0.76194        0.36577        2.13059
H          0.95154        1.20795        2.80413
H         -0.20169       -0.08875        2.40350
H          1.54189       -0.38847        2.29373
C         -0.81611       -1.57806       -1.56899
H         -0.33826       -1.42925       -2.54639
H         -0.29855       -2.16688       -0.80312
C         -2.65004       -1.06873        0.06743
H         -2.75990       -0.01822        0.38909
H         -3.62635       -1.60330        0.07975
H         -1.96354       -1.56929        0.77476
23
int_8 Energy=-653.934096785
C         -2.23375       -1.14262       -1.14377
O         -0.47855        1.04225       -0.49071
H         -2.58514       -0.37709       -1.83742
P          0.85166        0.97423        0.18324
C          2.06488       -0.29323       -0.40190
H          1.68671       -1.30289       -0.18789
H          2.27921       -0.22583       -1.47847
H          3.01481       -0.16635        0.15130
C          1.77719        2.54397       -0.08298
H          1.08056        3.18689       -0.64615
H          2.16835        3.07563        0.79785
H          2.63621        2.32995       -0.73348
C          0.72546        0.47857        1.95675
H          1.06217        1.22262        2.69000
H         -0.33381        0.24215        2.13584
H          1.29998       -0.44398        2.11865
C         -1.05769       -1.72758       -1.40325
H         -0.48197       -1.39188       -2.26413
H         -0.62282       -2.45537       -0.70263
C         -3.05529       -1.35699        0.08657
H         -3.38774       -0.38039        0.47977
H         -3.94637       -1.98545       -0.10162
H         -2.46407       -1.84659        0.87445
23
int_9 Energy=-653.939921552
C         -2.24930       -1.11706       -0.87685
O         -0.24389        1.08795       -0.85883
H         -2.46299       -0.17293       -1.38482
P          0.98260        1.03078        0.00514
C          2.19261       -0.26445       -0.45610
H          1.71953       -1.23948       -0.27912
H          2.47496       -0.21459       -1.51366
H          3.10503       -0.20881        0.15847
C          1.91117        2.62080       -0.09487
H          1.40057        3.18202       -0.89440
H          1.94983        3.22951        0.82230
H          2.94911        2.45367       -0.40674
C          0.64278        0.56307        1.75599
H          0.75171        1.37325        2.48877
H         -0.38984        0.18651        1.79063
H          1.31405       -0.25589        2.05201
C         -1.14392       -1.77860       -1.23610
H         -0.49612       -1.33532       -1.99501
H         -0.84187       -2.71486       -0.75147
C         -3.20337       -1.52906        0.20445
H         -3.51609       -0.64028        0.78325
H         -4.11619       -2.00785       -0.20531
H         -2.73037       -2.24837        0.89227
23
int_10 Energy=-653.946564257
C         -2.22140       -1.09537       -0.70022
O         -0.17147        1.14213       -1.02016
H         -2.34548       -0.07090       -1.05856
P          1.01753        1.05085       -0.09376
C          2.20848       -0.27054       -0.51619
H          1.69357       -1.22857       -0.37049
H          2.52978       -0.21169       -1.56135
H          3.09541       -0.24876        0.13502
C          1.96888        2.62623       -0.10443
H          1.74548        3.07638       -1.08570
H          1.66519        3.32453        0.69336
H          3.05384        2.47985       -0.01737
C          0.58447        0.60714        1.63766
H          0.42577        1.47601        2.29338
H         -0.34903        0.02597        1.58028
H          1.36995       -0.02501        2.08184
C         -1.16954       -1.78564       -1.17214
H         -0.50365       -1.29613       -1.88152
H         -0.96054       -2.81369       -0.85485
C         -3.21053       -1.59702        0.30515
H         -3.41580       -0.81193        1.05629
H         -4.17507       -1.86034       -0.17072
H         -2.83584       -2.49349        0.82450
23
int_11 Energy=-653.952194735
C         -2.17140       -1.09085       -0.56451
O         -0.13529        1.17466       -1.12834
H         -2.23222       -0.01610       -0.78875
P          1.02045        1.05878       -0.16630
C          2.20070       -0.28101       -0.56336
H          1.66590       -1.23383       -0.44770
H          2.54416       -0.20430       -1.60255
H          3.07027       -0.27505        0.11124
C          1.99672        2.61231       -0.11745
H          2.04516        2.96413       -1.16090
H          1.47813        3.37207        0.48927
H          3.01636        2.49298        0.27893
C          0.53274        0.64759        1.55334
H          0.13722        1.52325        2.08877
H         -0.25993       -0.11365        1.47584
H          1.38121        0.23477        2.12369
C         -1.19969       -1.77702       -1.15274
H         -0.52093       -1.25828       -1.83717
H         -1.05417       -2.85591       -0.98395
C         -3.17699       -1.64136        0.40602
H         -3.23774       -0.99715        1.30132
H         -4.18852       -1.67332       -0.03941
H         -2.91212       -2.66271        0.72472
23
int_12 Energy=-653.955521004
C         -2.12692       -1.10219       -0.44547
O         -0.13111        1.20723       -1.20298
H         -2.13142       -0.01141       -0.55981
P          1.00307        1.07320       -0.22513
C          2.16989       -0.28442       -0.60757
H          1.62159       -1.23455       -0.52465
H          2.53217       -0.18127       -1.64081
H          3.02452       -0.29354        0.08564
C          2.01916        2.59579       -0.14280
H          2.27696        2.86561       -1.17978
H          1.40704        3.40432        0.28661
H          2.93744        2.48300        0.45374
C          0.48798        0.70902        1.49542
H         -0.07350        1.55999        1.90927
H         -0.17262       -0.17169        1.45728
H          1.35409        0.49552        2.14154
C         -1.23158       -1.77984       -1.16948
H         -0.56852       -1.23094       -1.84236
H         -1.14923       -2.87281       -1.12271
C         -3.11182       -1.69793        0.51476
H         -3.02288       -1.22215        1.50801
H         -4.14994       -1.52787        0.17551
H         -2.96437       -2.78305        0.63576
23
end Energy=-653.956601951
C         -2.09147       -1.15917       -0.33591
O         -0.14499        1.27115       -1.25699
H         -2.04557       -0.06330       -0.34920
P          0.98825        1.11848       -0.27751
C          2.12276       -0.26425       -0.65969
H          1.55070       -1.20293       -0.61736
H          2.50445       -0.13227       -1.68335
H          2.96636       -0.31222        0.04602
C          2.06423        2.59475       -0.17641
H          2.48523        2.79300       -1.17372
H          1.44844        3.45871        0.11613
H          2.88146        2.46192        0.54920
C          0.45322        0.81075        1.44453
H         -0.21069        1.63005        1.75928
H         -0.11597       -0.13022        1.46479
H          1.30901        0.74339        2.13371
C         -1.29825       -1.80713       -1.19601
H         -0.65476       -1.23651       -1.87029
H         -1.28110       -2.90160       -1.25898
C         -3.03826       -1.79893        0.63653
H         -2.81182       -1.49450        1.67442
H         -4.07814       -1.48014        0.44385
H         -3.00311       -2.89904        0.58694
