23
start Energy=-653.89628158
C         -2.35537        0.47584       -0.34932
O         -2.02164        1.32303        0.46095
H         -2.29545        0.67697       -1.44462
P          1.05721       -0.03208       -0.09205
C          2.87734       -0.40945       -0.04505
H          3.01554       -1.45147        0.28253
H          3.28749       -0.31032       -1.06203
H          3.42384        0.26318        0.63664
C          1.01371        1.73328       -0.54967
H          0.00300        2.11376       -0.34232
H          1.76147        2.30410        0.02079
H          1.23274        1.82573       -1.62438
C          0.56214       -0.15798        1.65944
H          1.29900        0.33092        2.31397
H         -0.42216        0.31980        1.76952
H          0.48917       -1.22250        1.92966
C         -0.00878       -0.92431       -1.06865
H          0.09111       -0.76807       -2.14869
H         -0.17653       -1.96235       -0.76043
C         -3.06014       -0.80322        0.03007
H         -4.14854       -0.60376        0.03333
H         -2.85434       -1.60336       -0.69300
H         -2.77078       -1.11776        1.04331
23
int_1 Energy=-653.894986092
C         -2.32435        0.38060       -0.36735
O         -2.01953        1.28823        0.38451
H         -2.35015        0.53044       -1.47365
P          1.02853        0.01288       -0.10072
C          2.82138       -0.46552       -0.12601
H          2.90184       -1.52676        0.15646
H          3.19657       -0.35660       -1.15605
H          3.43716        0.14137        0.55879
C          1.04214        1.77720       -0.56607
H          0.00937        2.15094       -0.50814
H          1.68200        2.33413        0.13560
H          1.43189        1.89858       -1.58820
C          0.57075       -0.04027        1.66684
H          1.25350        0.59179        2.25646
H         -0.45763        0.34282        1.74943
H          0.62531       -1.07302        2.04379
C         -0.09000       -0.86250       -1.03893
H         -0.01472       -0.72048       -2.12257
H         -0.26455       -1.89159       -0.71087
C         -2.98101       -0.89958        0.10534
H         -4.03268       -0.66502        0.35797
H         -2.97090       -1.67288       -0.67540
H         -2.49492       -1.27476        1.01876
23
int_2 Energy=-653.88921586
C         -2.11213        0.24535       -0.42287
O         -1.85030        1.21805        0.30303
H         -2.31479        0.37777       -1.52076
P          0.95341        0.08480       -0.06835
C          2.68109       -0.53174       -0.20921
H          2.69633       -1.60422        0.04058
H          3.00239       -0.41823       -1.25726
H          3.37357        0.00782        0.45580
C          1.05053        1.83721       -0.56903
H          0.02537        2.21965       -0.68588
H          1.55778        2.39724        0.23109
H          1.62130        1.94274       -1.50529
C          0.55108        0.06630        1.71457
H          1.16921        0.80711        2.24412
H         -0.51110        0.35100        1.79316
H          0.73648       -0.92924        2.14844
C         -0.24160       -0.77525       -0.97001
H         -0.14808       -0.65173       -2.05467
H         -0.32971       -1.82239       -0.65895
C         -2.83050       -0.98743        0.13379
H         -3.79097       -0.64413        0.56031
H         -3.04219       -1.73605       -0.65330
H         -2.24717       -1.45465        0.95072
23
int_3 Energy=-653.906702062
C         -1.71744       -0.04703       -0.62006
O         -1.24596        0.98185        0.17923
H         -2.25556        0.33469       -1.52855
P          0.68536        0.27362        0.05765
C          2.38387       -0.53382       -0.25136
H          2.40441       -1.60994       -0.01246
H          2.68310       -0.44329       -1.30985
H          3.16276       -0.05057        0.36361
C          1.03978        1.96137       -0.56381
H          0.03873        2.38061       -0.70780
H          1.56768        2.54949        0.20392
H          1.61211        1.95872       -1.50330
C          0.55329        0.09012        1.88431
H          1.20221        0.80401        2.41701
H         -0.49373        0.34508        2.06432
H          0.77145       -0.92744        2.24033
C         -0.41211       -0.77784       -0.99408
H         -0.11563       -0.71017       -2.05652
H         -0.38571       -1.83713       -0.67528
C         -2.68717       -1.00176        0.08479
H         -3.59760       -0.46486        0.40303
H         -2.98027       -1.78250       -0.63565
H         -2.21355       -1.49321        0.96054
23
int_4 Energy=-653.908863235
C         -1.72647       -0.16121       -0.78800
O         -1.20915        0.89407        0.02908
H         -2.20599        0.26033       -1.70096
P          0.49128        0.32773        0.07009
C          2.20332       -0.45697       -0.19786
H          2.12558       -1.53004        0.05883
H          2.39346       -0.35521       -1.28303
H          3.00419        0.02917        0.40209
C          1.05634        2.01112       -0.53104
H          0.21921        2.62818       -0.88009
H          1.57322        2.55561        0.27584
H          1.77869        1.90370       -1.35419
C          0.56462        0.04390        1.92330
H          1.16639        0.85165        2.36899
H         -0.40034        0.00331        2.45315
H          1.11776       -0.88704        2.13224
C         -0.40543       -0.87931       -1.07557
H          0.00374       -0.83984       -2.09485
H         -0.34946       -1.94231       -0.80084
C         -2.68095       -0.98178        0.06742
H         -3.42515       -0.27973        0.46479
H         -3.19107       -1.80887       -0.45646
H         -2.10377       -1.38644        0.91707
23
int_5 Energy=-653.910900185
C         -1.74806       -0.15459       -0.74921
O         -1.19982        0.98135       -0.09196
H         -2.30672        0.11400       -1.68143
P          0.54367        0.31919       -0.00458
C          2.20168       -0.53491       -0.32312
H          2.12123       -1.60888       -0.11692
H          2.43852       -0.43722       -1.39208
H          3.05036       -0.14728        0.25774
C          1.14873        2.02255       -0.46379
H          0.50998        2.41445       -1.26681
H          1.02265        2.70840        0.39666
H          2.20256        2.02933       -0.78299
C          0.52948        0.11529        1.83617
H          0.66720        1.10857        2.29788
H         -0.43072       -0.29490        2.18288
H          1.35964       -0.52965        2.16260
C         -0.44084       -0.89044       -1.05830
H         -0.07602       -0.85078       -2.09726
H         -0.38309       -1.95642       -0.76616
C         -2.64188       -0.95975        0.20945
H         -3.15679       -0.20482        0.81318
H         -3.38111       -1.65003       -0.24192
H         -2.03067       -1.59348        0.87999
23
int_6 Energy=-653.900952149
C         -1.75809       -0.29546       -0.74960
O         -1.20483        0.97234       -0.35298
H         -2.35727       -0.18765       -1.67825
P          0.49610        0.38335       -0.10430
C          2.13548       -0.49959       -0.52934
H          1.96642       -1.58603       -0.43004
H          2.33781       -0.31607       -1.60155
H          3.03672       -0.23670        0.05119
C          1.25812        2.07862       -0.29662
H          1.36415        2.45250       -1.32824
H          0.73888        2.85666        0.28666
H          2.28835        1.95286        0.08722
C          0.46750        0.23276        1.73273
H          0.25176        1.23858        2.12527
H         -0.30819       -0.45108        2.11598
H          1.45326       -0.09638        2.09498
C         -0.45880       -1.03441       -0.98944
H         -0.17675       -1.07825       -2.05371
H         -0.35819       -2.06739       -0.59250
C         -2.63095       -0.95808        0.33886
H         -2.77358       -0.21085        1.13689
H         -3.60858       -1.29540       -0.05363
H         -2.15930       -1.85431        0.79043
23
int_7 Energy=-653.925175454
C         -1.96102       -0.92052       -1.03301
O         -0.79963        1.12933       -0.32530
H         -2.36087       -0.17541       -1.71967
P          0.59888        0.82754        0.13292
C          1.82521       -0.42233       -0.54750
H          1.59500       -1.48478       -0.40733
H          2.08105       -0.27199       -1.60726
H          2.73796       -0.21413        0.04319
C          1.56641        2.31791       -0.16043
H          1.35021        2.58145       -1.21134
H          1.19929        3.11342        0.49857
H          2.64241        2.17018       -0.01872
C          0.59234        0.38860        1.89938
H          0.45827        1.31651        2.46641
H         -0.27950       -0.26447        2.07935
H          1.51586       -0.11047        2.22131
C         -0.81865       -1.56145       -1.36234
H         -0.27611       -1.31971       -2.27649
H         -0.36759       -2.28268       -0.67562
C         -2.68755       -1.16516        0.25519
H         -2.69905       -0.21155        0.81469
H         -3.73740       -1.49201        0.08769
H         -2.17550       -1.94828        0.84630
23
int_8 Energy=-653.93805345
C         -2.13576       -1.06169       -0.96664
O         -0.50601        1.15448       -0.63121
H         -2.43781       -0.18701       -1.54992
P          0.80909        0.95489        0.05664
C          2.01405       -0.33415       -0.50298
H          1.65094       -1.35603       -0.32994
H          2.30874       -0.23942       -1.55781
H          2.92130       -0.19694        0.11306
C          1.79091        2.49012       -0.11783
H          1.35540        2.96190       -1.01350
H          1.68039        3.15955        0.74593
H          2.85765        2.30442       -0.28237
C          0.62463        0.49685        1.82868
H          0.65437        1.38067        2.47799
H         -0.35580        0.00446        1.92804
H          1.40492       -0.20456        2.15411
C         -1.01796       -1.70051       -1.32254
H         -0.43640       -1.33738       -2.16928
H         -0.62812       -2.54419       -0.73386
C         -2.97305       -1.37968        0.23272
H         -3.14130       -0.45898        0.82420
H         -3.96551       -1.77906       -0.05779
H         -2.47465       -2.12775        0.87430
23
int_9 Energy=-653.943438236
C         -2.20961       -1.08237       -0.78081
O         -0.23419        1.12424       -0.93356
H         -2.39086       -0.08784       -1.19985
P          0.97484        1.02019       -0.04924
C          2.18151       -0.28276       -0.49083
H          1.71741       -1.26487       -0.33202
H          2.49129       -0.21798       -1.53987
H          3.07690       -0.22164        0.14591
C          1.92058        2.59661       -0.11996
H          1.54987        3.07796       -1.04095
H          1.74366        3.26333        0.73843
H          3.00272        2.44404       -0.20766
C          0.59645        0.57192        1.69788
H          0.53686        1.43633        2.37295
H         -0.37563        0.05338        1.68824
H          1.35610       -0.12048        2.08998
C         -1.14136       -1.75208       -1.21474
H         -0.49115       -1.28697       -1.95896
H         -0.87047       -2.74037       -0.82523
C         -3.16627       -1.54596        0.28019
H         -3.39422       -0.71572        0.97570
H         -4.13011       -1.88221       -0.15259
H         -2.74430       -2.38675        0.85697
23
int_10 Energy=-653.948868425
C         -2.19289       -1.08008       -0.64321
O         -0.17862        1.16335       -1.04941
H         -2.30110       -0.03580       -0.94502
P          1.00183        1.04498       -0.12062
C          2.19464       -0.27988       -0.53413
H          1.69093       -1.24581       -0.39864
H          2.52805       -0.20783       -1.57563
H          3.07357       -0.24936        0.12781
C          1.96891        2.60678       -0.12506
H          1.82527        3.01381       -1.13981
H          1.58294        3.33172        0.61061
H          3.04129        2.46468        0.06412
C          0.56003        0.62009        1.61255
H          0.30927        1.50570        2.21590
H         -0.32104       -0.03946        1.55483
H          1.38144        0.07762        2.10858
C         -1.17179       -1.77004       -1.17703
H         -0.51062       -1.26773       -1.88198
H         -0.98013       -2.81667       -0.92038
C         -3.17534       -1.61067        0.35571
H         -3.31642       -0.88222        1.17601
H         -4.17027       -1.77526       -0.10169
H         -2.83995       -2.56796        0.78648
23
int_11 Energy=-653.953434861
C         -2.15662       -1.09282       -0.52636
O         -0.14128        1.19219       -1.14381
H         -2.20533       -0.01279       -0.71477
P          1.00533        1.06433       -0.18551
C          2.18589       -0.28183       -0.57683
H          1.65048       -1.23661       -0.47164
H          2.53590       -0.19212       -1.61425
H          3.05189       -0.28026        0.10360
C          2.00129        2.60444       -0.13235
H          2.09940        2.93291       -1.17960
H          1.46088        3.38104        0.43121
H          2.99931        2.47711        0.31214
C          0.51915        0.67036        1.53909
H          0.07979        1.54573        2.03952
H         -0.23903       -0.12675        1.47808
H          1.37830        0.31274        2.12932
C         -1.20647       -1.77655       -1.16265
H         -0.53566       -1.24835       -1.84569
H         -1.07680       -2.85991       -1.03423
C         -3.14933       -1.66271        0.44469
H         -3.16665       -1.06799        1.37559
H         -4.17443       -1.63413        0.03261
H         -2.91601       -2.70805        0.70182
23
int_12 Energy=-653.955808599
C         -2.12120       -1.10946       -0.42539
O         -0.13974        1.21960       -1.21169
H         -2.12021       -0.01756       -0.52171
P          1.00064        1.07940       -0.23136
C          2.16064       -0.28142       -0.61596
H          1.61083       -1.23144       -0.54040
H          2.52743       -0.17089       -1.64717
H          3.01391       -0.29624        0.08019
C          2.02441        2.59359       -0.15235
H          2.30417        2.85318       -1.18577
H          1.41375        3.41203        0.25880
H          2.93130        2.47388        0.46071
C          0.48202        0.72674        1.48769
H         -0.09365        1.57530        1.88648
H         -0.16594       -0.16321        1.46105
H          1.34847        0.53422        2.14057
C         -1.24041       -1.78148       -1.17519
H         -0.58156       -1.22879       -1.84818
H         -1.16673       -2.87502       -1.14825
C         -3.09705       -1.71597        0.53701
H         -2.98901       -1.26712        1.54063
H         -4.13798       -1.52411        0.22054
H         -2.96410       -2.80525        0.62976
23
end Energy=-653.956601951
C         -2.09147       -1.15917       -0.33591
O         -0.14499        1.27115       -1.25699
H         -2.04557       -0.06330       -0.34920
P          0.98825        1.11848       -0.27751
C          2.12276       -0.26425       -0.65969
H          1.55070       -1.20293       -0.61736
H          2.50445       -0.13227       -1.68335
H          2.96636       -0.31222        0.04602
C          2.06423        2.59475       -0.17641
H          2.48523        2.79300       -1.17372
H          1.44844        3.45871        0.11613
H          2.88146        2.46192        0.54920
C          0.45322        0.81075        1.44453
H         -0.21069        1.63005        1.75928
H         -0.11597       -0.13022        1.46479
H          1.30901        0.74339        2.13371
C         -1.29825       -1.80713       -1.19601
H         -0.65476       -1.23651       -1.87029
H         -1.28110       -2.90160       -1.25898
C         -3.03826       -1.79893        0.63653
H         -2.81182       -1.49450        1.67442
H         -4.07814       -1.48014        0.44385
H         -3.00311       -2.89904        0.58694
