23
start Energy=-653.89628158
C         -2.35537        0.47584       -0.34932
O         -2.02164        1.32303        0.46095
H         -2.29545        0.67697       -1.44462
P          1.05721       -0.03208       -0.09205
C          2.87734       -0.40945       -0.04505
H          3.01554       -1.45147        0.28253
H          3.28749       -0.31032       -1.06203
H          3.42384        0.26318        0.63664
C          1.01371        1.73328       -0.54967
H          0.00300        2.11376       -0.34232
H          1.76147        2.30410        0.02079
H          1.23274        1.82573       -1.62438
C          0.56214       -0.15798        1.65944
H          1.29900        0.33092        2.31397
H         -0.42216        0.31980        1.76952
H          0.48917       -1.22250        1.92966
C         -0.00878       -0.92431       -1.06865
H          0.09111       -0.76807       -2.14869
H         -0.17653       -1.96235       -0.76043
C         -3.06014       -0.80322        0.03007
H         -4.14854       -0.60376        0.03333
H         -2.85434       -1.60336       -0.69300
H         -2.77078       -1.11776        1.04331
23
int_1 Energy=-653.894745059
C         -2.32907        0.36446       -0.36476
O         -2.01198        1.25758        0.40740
H         -2.33136        0.53517       -1.46621
P          1.03023        0.01948       -0.10894
C          2.82290       -0.44700       -0.11860
H          2.90479       -1.50728        0.16439
H          3.20479       -0.32968       -1.14459
H          3.42345        0.17008        0.56933
C          1.07803        1.78898       -0.55159
H          0.06013        2.19460       -0.47415
H          1.74742        2.31995        0.14330
H          1.47106        1.90440       -1.57203
C          0.56168       -0.05127        1.65010
H          1.23543        0.57798        2.25119
H         -0.47139        0.31854        1.73198
H          0.62667       -1.09357        1.99636
C         -0.08089       -0.86620       -1.04528
H          0.01127       -0.75486       -2.13235
H         -0.22028       -1.90393       -0.71360
C         -3.03093       -0.89874        0.09803
H         -4.08668       -0.63322        0.28979
H         -3.00610       -1.69877       -0.65442
H         -2.60916       -1.26672        1.04466
23
int_2 Energy=-653.889429479
C         -2.24225        0.24834       -0.39423
O         -1.96383        1.18647        0.35366
H         -2.33648        0.40665       -1.49426
P          0.98847        0.07849       -0.11015
C          2.74011       -0.48420       -0.18612
H          2.76773       -1.55452        0.06680
H          3.10183       -0.35657       -1.21846
H          3.38214        0.08505        0.50329
C          1.13180        1.84372       -0.55046
H          0.13162        2.28622       -0.63476
H          1.68807        2.34707        0.25486
H          1.70768        1.95092       -1.48046
C          0.55241        0.03607        1.65564
H          1.14530        0.78049        2.20698
H         -0.51723        0.29037        1.72417
H          0.75692       -0.96948        2.05176
C         -0.17246       -0.80858       -1.00595
H         -0.09142       -0.72565       -2.09598
H         -0.22536       -1.85355       -0.66809
C         -2.97532       -0.98047        0.14053
H         -3.95349       -0.61501        0.49614
H         -3.15029       -1.75775       -0.61809
H         -2.46595       -1.43408        1.00318
23
int_3 Energy=-653.885921192
C         -1.94020        0.06328       -0.47181
O         -1.74539        1.08612        0.29775
H         -2.29093        0.29149       -1.52747
P          0.90607        0.16762       -0.06288
C          2.59653       -0.51980       -0.25405
H          2.61574       -1.58908       -0.00153
H          2.96887       -0.37948       -1.28030
H          3.25239        0.03205        0.43950
C          1.14591        1.89797       -0.54216
H          0.17183        2.36197       -0.73174
H          1.62643        2.38740        0.31727
H          1.82930        1.95792       -1.40101
C          0.53666        0.08668        1.69969
H          1.07967        0.89238        2.21213
H         -0.55359        0.27678        1.74856
H          0.84130       -0.89572        2.08823
C         -0.37308       -0.73331       -0.92969
H         -0.21129       -0.67838       -2.01750
H         -0.25054       -1.78890       -0.62620
C         -2.86271       -1.03657        0.13097
H         -3.74750       -0.51702        0.53515
H         -3.20675       -1.79529       -0.59569
H         -2.38874       -1.56810        0.97279
23
int_4 Energy=-653.908511646
C         -1.77449       -0.10602       -0.60853
O         -1.28886        0.97843        0.13189
H         -2.28823        0.23150       -1.55346
P          0.63780        0.29235       -0.01022
C          2.38194       -0.47910       -0.26584
H          2.43041       -1.55385       -0.02324
H          2.77585       -0.34436       -1.28999
H          3.07220        0.05204        0.41582
C          1.13944        1.96341       -0.54005
H          0.24356        2.51893       -0.82362
H          1.59135        2.41940        0.35404
H          1.89633        1.93420       -1.33587
C          0.53281        0.07423        1.79210
H          1.06262        0.92563        2.24475
H         -0.53528        0.15014        2.01531
H          0.98416       -0.87065        2.12462
C         -0.45018       -0.80942       -0.98703
H         -0.19023       -0.75806       -2.05328
H         -0.29066       -1.84587       -0.66251
C         -2.78102       -1.01910        0.13244
H         -3.60059       -0.41116        0.54431
H         -3.21580       -1.75655       -0.56385
H         -2.33315       -1.58612        0.96220
23
int_5 Energy=-653.91006703
C         -1.75237       -0.19453       -0.65812
O         -1.15120        0.93463       -0.04532
H         -2.33346        0.14561       -1.54339
P          0.55608        0.31916       -0.05734
C          2.24538       -0.47521       -0.32506
H          2.24294       -1.55449       -0.12672
H          2.60917       -0.31545       -1.35126
H          2.96314        0.00340        0.35340
C          1.21108        2.01650       -0.49357
H          0.53686        2.59924       -1.12658
H          1.32182        2.54911        0.46070
H          2.20358        1.93955       -0.94908
C          0.50989        0.12858        1.78695
H          0.79569        1.11513        2.18562
H         -0.51897       -0.08014        2.10925
H          1.21604       -0.62683        2.15684
C         -0.45680       -0.92467       -1.04515
H         -0.22094       -0.89124       -2.11877
H         -0.30393       -1.96369       -0.70802
C         -2.72095       -1.01278        0.21611
H         -3.36905       -0.37551        0.83503
H         -3.37162       -1.61161       -0.44278
H         -2.21237       -1.72478        0.88724
23
int_6 Energy=-653.874052081
C         -1.76645       -0.33972       -0.69108
O         -1.06556        0.90397       -0.30629
H         -2.42299        0.02156       -1.50711
P          0.59989        0.40088       -0.07755
C          2.21272       -0.44613       -0.42282
H          2.06414       -1.52008       -0.25994
H          2.53990       -0.26201       -1.45750
H          2.96810       -0.04645        0.26778
C          1.41948        2.17192       -0.36460
H          1.02801        2.64719       -1.27531
H          1.27784        2.89247        0.46562
H          2.52090        2.10391       -0.48771
C          0.52709        0.26258        1.77251
H          0.57397        1.26082        2.25033
H         -0.45835       -0.16956        1.98457
H          1.32884       -0.36465        2.19133
C         -0.54509       -1.14773       -1.06156
H         -0.31350       -1.06571       -2.13556
H         -0.53128       -2.22129       -0.78092
C         -2.76698       -1.09947        0.29075
H         -3.24572       -0.47173        1.06072
H         -3.62631       -1.54615       -0.26742
H         -2.31867       -1.96465        0.81176
23
int_7 Energy=-653.89663259
C         -2.00311       -0.77522       -0.82845
O         -0.64592        1.12846       -0.41746
H         -2.38637        0.06397       -1.40645
P          0.73264        0.77288        0.05039
C          2.13599       -0.41045       -0.43479
H          2.00881       -1.48525       -0.24429
H          2.53307       -0.25561       -1.44993
H          2.92685       -0.05618        0.25845
C          1.60661        2.32259       -0.32619
H          1.03775        2.71348       -1.18921
H          1.45044        2.98850        0.52590
H          2.66157        2.19151       -0.57452
C          0.57127        0.32079        1.82234
H          0.63690        1.27116        2.36298
H         -0.44978       -0.08602        1.93203
H          1.31605       -0.39365        2.19049
C         -0.89088       -1.41956       -1.24548
H         -0.33501       -1.05577       -2.10641
H         -0.54416       -2.33878       -0.78052
C         -2.89085       -1.26045        0.27238
H         -3.28190       -0.49732        0.97232
H         -3.77120       -1.67818       -0.24075
H         -2.41877       -2.06089        0.85717
23
int_8 Energy=-653.925964786
C         -2.14781       -0.92117       -0.78488
O         -0.36282        1.08411       -0.75016
H         -2.38481        0.06333       -1.19969
P          0.90937        0.89264        0.01804
C          2.20992       -0.34187       -0.42157
H          1.93836       -1.39083       -0.24506
H          2.57092       -0.21790       -1.45043
H          3.03971       -0.09362        0.25965
C          1.78325        2.47420       -0.26731
H          1.19794        2.82527       -1.13479
H          1.63849        3.17138        0.56542
H          2.84059        2.36462       -0.54281
C          0.58396        0.41910        1.77484
H          0.61079        1.29449        2.43732
H         -0.43288       -0.00808        1.77123
H          1.28852       -0.34206        2.14697
C         -1.04618       -1.54182       -1.23403
H         -0.40585       -1.05994       -1.97338
H         -0.71455       -2.50823       -0.84976
C         -3.08120       -1.44073        0.26678
H         -3.40910       -0.64254        0.95895
H         -3.99994       -1.83194       -0.20418
H         -2.62669       -2.24843        0.85889
23
int_9 Energy=-653.937655927
C         -2.15814       -0.96587       -0.67523
O         -0.24603        1.09905       -0.93086
H         -2.32264        0.07311       -0.98270
P          0.95530        0.94305       -0.05346
C          2.22701       -0.32015       -0.45873
H          1.86566       -1.34397       -0.31336
H          2.57926       -0.19292       -1.48716
H          3.06947       -0.14941        0.22792
C          1.86208        2.52394       -0.23604
H          1.46901        2.83430       -1.21825
H          1.54123        3.26013        0.51363
H          2.95610        2.43103       -0.27539
C          0.55328        0.49525        1.69650
H          0.42478        1.38124        2.33564
H         -0.39720       -0.05774        1.64158
H          1.31399       -0.16516        2.14530
C         -1.10279       -1.60210       -1.19796
H         -0.44442       -1.08184       -1.89593
H         -0.83979       -2.62903       -0.92987
C         -3.12359       -1.52824        0.32577
H         -3.35791       -0.79087        1.11511
H         -4.08820       -1.77501       -0.15258
H         -2.73647       -2.43879        0.80607
23
int_10 Energy=-653.946149908
C         -2.14436       -1.00086       -0.57922
O         -0.19348        1.12944       -1.04826
H         -2.25111        0.06795       -0.80124
P          0.97075        0.97924       -0.11628
C          2.21491       -0.30902       -0.50537
H          1.79424       -1.31386       -0.39055
H          2.56959       -0.17588       -1.53263
H          3.06347       -0.19844        0.18580
C          1.91413        2.54369       -0.21061
H          1.75974        2.82014       -1.26627
H          1.43751        3.31331        0.41440
H          2.98744        2.45940        0.00995
C          0.51955        0.56450        1.62389
H          0.22454        1.45847        2.19423
H         -0.33827       -0.12274        1.55958
H          1.34028        0.05168        2.15196
C         -1.14331       -1.65055       -1.18228
H         -0.47810       -1.11163       -1.86069
H         -0.94425       -2.71360       -1.01218
C         -3.12133       -1.58909        0.39622
H         -3.23899       -0.94062        1.28333
H         -4.12834       -1.67222       -0.05020
H         -2.81460       -2.58933        0.73645
23
int_11 Energy=-653.951758422
C         -2.12439       -1.03675       -0.49606
O         -0.17266        1.16068       -1.13167
H         -2.18034        0.04891       -0.64436
P          0.97471        1.01160       -0.17089
C          2.19307       -0.29994       -0.55233
H          1.72954       -1.28984       -0.46184
H          2.55502       -0.16367       -1.57867
H          3.04362       -0.23558        0.14339
C          1.95330        2.55389       -0.19372
H          2.01649        2.80397       -1.26492
H          1.38467        3.35275        0.30695
H          2.96131        2.46384        0.23661
C          0.49154        0.63218        1.56101
H          0.05171        1.51507        2.05014
H         -0.26670       -0.16455        1.51405
H          1.34961        0.27457        2.15310
C         -1.18189       -1.69294       -1.17958
H         -0.51793       -1.14088       -1.84957
H         -1.04095       -2.77610       -1.09288
C         -3.10140       -1.64270        0.46810
H         -3.10202       -1.09829        1.42998
H         -4.13439       -1.57388        0.08262
H         -2.88191       -2.70234        0.67054
23
int_12 Energy=-653.955346907
C         -2.10428       -1.08659       -0.41571
O         -0.16221        1.20115       -1.19959
H         -2.10958        0.00756       -0.49439
P          0.97701        1.05563       -0.22461
C          2.16118       -0.28596       -0.60333
H          1.64806       -1.25496       -0.53672
H          2.53210       -0.14920       -1.62854
H          3.01051       -0.27255        0.09718
C          1.99917        2.56835       -0.18311
H          2.26052        2.79343       -1.22902
H          1.38882        3.39972        0.20270
H          2.91477        2.45881        0.41740
C          0.46940        0.71322        1.50171
H         -0.09647        1.56788        1.90311
H         -0.18711       -0.16985        1.48710
H          1.33954        0.51138        2.14662
C         -1.23147       -1.74311       -1.18622
H         -0.57489       -1.18188       -1.85616
H         -1.15151       -2.83644       -1.17692
C         -3.07084       -1.70910        0.54843
H         -2.95261       -1.28503        1.56219
H         -4.11453       -1.50105        0.25241
H         -2.94557       -2.80141        0.61548
23
end Energy=-653.956601951
C         -2.09147       -1.15917       -0.33591
O         -0.14499        1.27115       -1.25699
H         -2.04557       -0.06330       -0.34920
P          0.98825        1.11848       -0.27751
C          2.12276       -0.26425       -0.65969
H          1.55070       -1.20293       -0.61736
H          2.50445       -0.13227       -1.68335
H          2.96636       -0.31222        0.04602
C          2.06423        2.59475       -0.17641
H          2.48523        2.79300       -1.17372
H          1.44844        3.45871        0.11613
H          2.88146        2.46192        0.54920
C          0.45322        0.81075        1.44453
H         -0.21069        1.63005        1.75928
H         -0.11597       -0.13022        1.46479
H          1.30901        0.74339        2.13371
C         -1.29825       -1.80713       -1.19601
H         -0.65476       -1.23651       -1.87029
H         -1.28110       -2.90160       -1.25898
C         -3.03826       -1.79893        0.63653
H         -2.81182       -1.49450        1.67442
H         -4.07814       -1.48014        0.44385
H         -3.00311       -2.89904        0.58694
